2
step 1
C 0.8116671303228266 0.0 0.0
C -0.8116671303228474 0.0 0.0
2
step 2
C 0.8053034742821618 0.0 0.0
C -0.8053034742821829 0.0 0.0
2
step 3
C 0.7948322356902958 0.0 0.0
C -0.7948322356903171 0.0 0.0
2
step 4
C 0.7804888350155456 0.0 0.0
C -0.7804888350155671 0.0 0.0
2
step 5
C 0.7626727565337302 0.0 0.0
C -0.762672756533752 0.0 0.0
2
step 6
C 0.7420237340514956 0.0 0.0
C -0.7420237340515176 0.0 0.0
2
step 7
C 0.7195210086325139 0.0 0.0
C -0.7195210086325361 0.0 0.0
2
step 8
C 0.6965873798376212 0.0 0.0
C -0.6965873798376436 0.0 0.0
2
step 9
C 0.6751457133243459 0.0 0.0
C -0.6751457133243686 0.0 0.0
2
step 10
C 0.6575278279990626 0.0 0.0
C -0.6575278279990855 0.0 0.0
2
step 11
C 0.6461185255255066 0.0 0.0
C -0.6461185255255297 0.0 0.0
2
step 12
C 0.6427257881285031 0.0 0.0
C -0.6427257881285264 0.0 0.0
2
step 13
C 0.647931372067022 0.0 0.0
C -0.6479313720670455 0.0 0.0
2
step 14
C 0.6608512068344434 0.0 0.0
C -0.6608512068344672 0.0 0.0
2
step 15
C 0.6794936684365904 0.0 0.0
C -0.6794936684366144 0.0 0.0
2
step 16
C 0.7014398702653317 0.0 0.0
C -0.7014398702653559 0.0 0.0
2
step 17
C 0.7244259778838708 0.0 0.0
C -0.7244259778838952 0.0 0.0
2
step 18
C 0.746635339294161 0.0 0.0
C -0.7466353392941857 0.0 0.0
2
step 19
C 0.7667475810247878 0.0 0.0
C -0.7667475810248127 0.0 0.0
2
step 20
C 0.7838651609103732 0.0 0.0
C -0.7838651609103983 0.0 0.0
2
step 21
C 0.7974074108134056 0.0 0.0
C -0.7974074108134309 0.0 0.0
2
step 22
C 0.8070154569800728 0.0 0.0
C -0.8070154569800984 0.0 0.0
2
step 23
C 0.8124815432510887 0.0 0.0
C -0.8124815432511144 0.0 0.0
2
step 24
C 0.8137031790165506 0.0 0.0
C -0.8137031790165766 0.0 0.0
2
step 25
C 0.8106589280724357 0.0 0.0
C -0.8106589280724619 0.0 0.0
2
step 26
C 0.8034031936334917 0.0 0.0
C -0.8034031936335181 0.0 0.0
2
step 27
C 0.7920793481583456 0.0 0.0
C -0.7920793481583722 0.0 0.0
2
step 28
C 0.7769527933231407 0.0 0.0
C -0.7769527933231676 0.0 0.0
2
step 29
C 0.7584671118459446 0.0 0.0
C -0.7584671118459717 0.0 0.0
2
step 30
C 0.737325700960664 0.0 0.0
C -0.7373257009606913 0.0 0.0
2
step 31
C 0.7145944411570953 0.0 0.0
C -0.7145944411571228 0.0 0.0
2
step 32
C 0.6918015160168833 0.0 0.0
C -0.6918015160169111 0.0 0.0
2
step 33
C 0.6709723254339545 0.0 0.0
C -0.6709723254339824 0.0 0.0
2
step 34
C 0.654490522635911 0.0 0.0
C -0.6544905226359392 0.0 0.0
2
step 35
C 0.6446770669480822 0.0 0.0
C -0.6446770669481107 0.0 0.0
2
step 36
C 0.6431247749986814 0.0 0.0
C -0.64312477499871 0.0 0.0
2
step 37
C 0.650101293175107 0.0 0.0
C -0.6501012931751359 0.0 0.0
2
step 38
C 0.6644378438591831 0.0 0.0
C -0.6644378438592122 0.0 0.0
2
step 39
C 0.6839920261311497 0.0 0.0
C -0.683992026131179 0.0 0.0
2
step 40
C 0.7063381829131092 0.0 0.0
C -0.7063381829131388 0.0 0.0
2
step 41
C 0.7292935553182215 0.0 0.0
C -0.7292935553182512 0.0 0.0
2
step 42
C 0.7511494642064119 0.0 0.0
C -0.7511494642064419 0.0 0.0
2
step 43
C 0.7706842725853461 0.0 0.0
C -0.7706842725853763 0.0 0.0
2
step 44
C 0.7870771428234944 0.0 0.0
C -0.7870771428235248 0.0 0.0
2
step 45
C 0.799802082256576 0.0 0.0
C -0.7998020822566067 0.0 0.0
2
step 46
C 0.8085375973957477 0.0 0.0
C -0.8085375973957786 0.0 0.0
2
step 47
C 0.8131015122847369 0.0 0.0
C -0.813101512284768 0.0 0.0
2
step 48
C 0.8134100323157487 0.0 0.0
C -0.81341003231578 0.0 0.0
2
step 49
C 0.8094577616534 0.0 0.0
C -0.8094577616534315 0.0 0.0
2
step 50
C 0.8013163886506296 0.0 0.0
C -0.8013163886506613 0.0 0.0
2
step 51
C 0.7891518741218501 0.0 0.0
C -0.789151874121882 0.0 0.0
2
step 52
C 0.7732621582174886 0.0 0.0
C -0.7732621582175208 0.0 0.0
2
step 53
C 0.7541386665994859 0.0 0.0
C -0.7541386665995183 0.0 0.0
2
step 54
C 0.7325532333799744 0.0 0.0
C -0.732553233380007 0.0 0.0
2
step 55
C 0.7096631624539336 0.0 0.0
C -0.7096631624539664 0.0 0.0
2
step 56
C 0.6871040323240687 0.0 0.0
C -0.6871040323241018 0.0 0.0
2
step 57
C 0.6669978891644508 0.0 0.0
C -0.6669978891644841 0.0 0.0
2
step 58
C 0.6517609211735559 0.0 0.0
C -0.6517609211735894 0.0 0.0
2
step 59
C 0.6436185914089859 0.0 0.0
C -0.6436185914090197 0.0 0.0
2
step 60
C 0.6439194472505215 0.0 0.0
C -0.6439194472505555 0.0 0.0
2
step 61
C 0.6526115426250828 0.0 0.0
C -0.652611542625117 0.0 0.0
2
step 62
C 0.6682640809483918 0.0 0.0
C -0.6682640809484263 0.0 0.0
2
step 63
C 0.6886170579955662 0.0 0.0
C -0.6886170579956008 0.0 0.0
2
step 64
C 0.7112625328599574 0.0 0.0
C -0.7112625328599923 0.0 0.0
2
step 65
C 0.7341090237891417 0.0 0.0
C -0.7341090237891768 0.0 0.0
2
step 66
C 0.7555559489581785 0.0 0.0
C -0.7555559489582138 0.0 0.0
2
step 67
C 0.7744761762688555 0.0 0.0
C -0.774476176268891 0.0 0.0
2
step 68
C 0.7901206079162011 0.0 0.0
C -0.7901206079162368 0.0 0.0
2
step 69
C 0.8020137665864856 0.0 0.0
C -0.8020137665865216 0.0 0.0
2
step 70
C 0.8098685643555239 0.0 0.0
C -0.8098685643555601 0.0 0.0
2
step 71
C 0.813526546288972 0.0 0.0
C -0.8135265462890084 0.0 0.0
2
step 72
C 0.8129217084622372 0.0 0.0
C -0.8129217084622739 0.0 0.0
2
step 73
C 0.8080646358941913 0.0 0.0
C -0.8080646358942282 0.0 0.0
2
step 74
C 0.7990450806425913 0.0 0.0
C -0.7990450806426284 0.0 0.0
2
step 75
C 0.7860533035803737 0.0 0.0
C -0.786053303580411 0.0 0.0
2
step 76
C 0.769422587773116 0.0 0.0
C -0.7694225877731535 0.0 0.0
2
step 77
C 0.7496961977056152 0.0 0.0
C -0.749696197705653 0.0 0.0
2
step 78
C 0.7277193104543147 0.0 0.0
C -0.7277193104543527 0.0 0.0
2
step 79
C 0.7047451565626012 0.0 0.0
C -0.7047451565626394 0.0 0.0
2
step 80
C 0.6825175335566246 0.0 0.0
C -0.682517533556663 0.0 0.0
2
step 81
C 0.6632467585917554 0.0 0.0
C -0.663246758591794 0.0 0.0
2
step 82
C 0.6493591184979742 0.0 0.0
C -0.6493591184980131 0.0 0.0
2
step 83
C 0.6429517358960085 0.0 0.0
C -0.6429517358960476 0.0 0.0
2
step 84
C 0.6451032739273239 0.0 0.0
C -0.6451032739273632 0.0 0.0
2
step 85
C 0.6554432609014094 0.0 0.0
C -0.6554432609014489 0.0 0.0
2
step 86
C 0.6723057420283943 0.0 0.0
C -0.6723057420284341 0.0 0.0
2
step 87
C 0.693345654560554 0.0 0.0
C -0.6933456545605939 0.0 0.0
2
step 88
C 0.7161942008503576 0.0 0.0
C -0.7161942008503978 0.0 0.0
2
step 89
C 0.7388587151910999 0.0 0.0
C -0.7388587151911403 0.0 0.0
2
step 90
C 0.759845476237008 0.0 0.0
C -0.7598454762370487 0.0 0.0
2
step 91
C 0.7781172474516784 0.0 0.0
C -0.7781172474517193 0.0 0.0
2
step 92
C 0.7929918023163365 0.0 0.0
C -0.7929918023163776 0.0 0.0
2
step 93
C 0.8040402636744349 0.0 0.0
C -0.8040402636744762 0.0 0.0
2
step 94
C 0.8110072256026927 0.0 0.0
C -0.8110072256027342 0.0 0.0
2
step 95
C 0.8137563120532635 0.0 0.0
C -0.8137563120533052 0.0 0.0
2
step 96
C 0.8122385913598842 0.0 0.0
C -0.8122385913599262 0.0 0.0
2
step 97
C 0.8064807461078994 0.0 0.0
C -0.8064807461079416 0.0 0.0
2
step 98
C 0.7965915590618164 0.0 0.0
C -0.7965915590618589 0.0 0.0
2
step 99
C 0.7827875224445503 0.0 0.0
C -0.7827875224445929 0.0 0.0
2
step 100
C 0.7654403194705656 0.0 0.0
C -0.7654403194706084 0.0 0.0
2
step 101
C 0.7451492901793354 0.0 0.0
C -0.7451492901793785 0.0 0.0
2
step 102
C 0.7228379370088747 0.0 0.0
C -0.722837937008918 0.0 0.0
2
step 103
C 0.6998594921071359 0.0 0.0
C -0.6998594921071795 0.0 0.0
2
step 104
C 0.67806534788509 0.0 0.0
C -0.6780653478851337 0.0 0.0
2
step 105
C 0.6597429759268366 0.0 0.0
C -0.6597429759268806 0.0 0.0
2
step 106
C 0.6473033250291979 0.0 0.0
C -0.647303325029242 0.0 0.0
2
step 107
C 0.6426819957683907 0.0 0.0
C -0.6426819957684351 0.0 0.0
2
step 108
C 0.6466666353079611 0.0 0.0
C -0.6466666353080057 0.0 0.0
2
step 109
C 0.6585758164354066 0.0 0.0
C -0.6585758164354515 0.0 0.0
2
step 110
C 0.6765384338841127 0.0 0.0
C -0.6765384338841578 0.0 0.0
2
step 111
C 0.6981554748055094 0.0 0.0
C -0.6981554748055547 0.0 0.0
2
step 112
C 0.7211155583447594 0.0 0.0
C -0.7211155583448049 0.0 0.0
2
step 113
C 0.7435299749544724 0.0 0.0
C -0.7435299749545181 0.0 0.0
2
step 114
C 0.7640095204689831 0.0 0.0
C -0.764009520469029 0.0 0.0
2
step 115
C 0.7816020066167343 0.0 0.0
C -0.7816020066167805 0.0 0.0
2
step 116
C 0.7956873575783054 0.0 0.0
C -0.7956873575783519 0.0 0.0
2
step 117
C 0.805879634751265 0.0 0.0
C -0.8058796347513116 0.0 0.0
2
step 118
C 0.8119526357259894 0.0 0.0
C -0.8119526357260363 0.0 0.0
2
step 119
C 0.8137906306757557 0.0 0.0
C -0.8137906306758028 0.0 0.0
2
step 120
C 0.8113612244967123 0.0 0.0
C -0.8113612244967596 0.0 0.0
2
step 121
C 0.8047074909754635 0.0 0.0
C -0.804707490975511 0.0 0.0
2
step 122
C 0.7939584044188848 0.0 0.0
C -0.7939584044189325 0.0 0.0
2
step 123
C 0.7793588471807562 0.0 0.0
C -0.7793588471808042 0.0 0.0
2
step 124
C 0.7613222163766697 0.0 0.0
C -0.7613222163767179 0.0 0.0
2
step 125
C 0.7405083880299401 0.0 0.0
C -0.7405083880299885 0.0 0.0
2
step 126
C 0.7179241768647664 0.0 0.0
C -0.717924176864815 0.0 0.0
2
step 127
C 0.6950262908975398 0.0 0.0
C -0.6950262908975886 0.0 0.0
2
step 128
C 0.6737713668573629 0.0 0.0
C -0.673771366857412 0.0 0.0
2
step 129
C 0.6565099623867476 0.0 0.0
C -0.6565099623867969 0.0 0.0
2
step 130
C 0.6456095312656848 0.0 0.0
C -0.6456095312657343 0.0 0.0
2
step 131
C 0.6428116057952201 0.0 0.0
C -0.6428116057952699 0.0 0.0
2
step 132
C 0.648597025648786 0.0 0.0
C -0.6485970256488359 0.0 0.0
2
step 133
C 0.66198715617778 0.0 0.0
C -0.6619871561778302 0.0 0.0
2
step 134
C 0.6809378176301213 0.0 0.0
C -0.6809378176301717 0.0 0.0
2
step 135
C 0.7030250638532262 0.0 0.0
C -0.7030250638532768 0.0 0.0
2
step 136
C 0.726010074240583 0.0 0.0
C -0.7260100742406338 0.0 0.0
2
step 137
C 0.748111120136811 0.0 0.0
C -0.7481111201368621 0.0 0.0
2
step 138
C 0.768040296876007 0.0 0.0
C -0.7680402968760582 0.0 0.0
2
step 139
C 0.7849254961735922 0.0 0.0
C -0.7849254961736437 0.0 0.0
2
step 140
C 0.7982042594896466 0.0 0.0
C -0.7982042594896983 0.0 0.0
2
step 141
C 0.8075301825108732 0.0 0.0
C -0.8075301825109251 0.0 0.0
2
step 142
C 0.8127040258229961 0.0 0.0
C -0.8127040258230482 0.0 0.0
2
step 143
C 0.8136294755068081 0.0 0.0
C -0.8136294755068605 0.0 0.0
2
step 144
C 0.8102903168977649 0.0 0.0
C -0.8102903168978175 0.0 0.0
2
step 145
C 0.8027464873203005 0.0 0.0
C -0.8027464873203534 0.0 0.0
2
step 146
C 0.7911485134630526 0.0 0.0
C -0.7911485134631057 0.0 0.0
2
step 147
C 0.7757720618902371 0.0 0.0
C -0.7757720618902904 0.0 0.0
2
step 148
C 0.7570758150868931 0.0 0.0
C -0.7570758150869467 0.0 0.0
2
step 149
C 0.7357848438125101 0.0 0.0
C -0.7357848438125638 0.0 0.0
2
step 150
C 0.7129941770699326 0.0 0.0
C -0.7129941770699866 0.0 0.0
2
step 151
C 0.6902666742303538 0.0 0.0
C -0.690266674230408 0.0 0.0
2
step 152
C 0.6696598517865234 0.0 0.0
C -0.6696598517865778 0.0 0.0
2
step 153
C 0.653570186931943 0.0 0.0
C -0.6535701869319976 0.0 0.0
2
step 154
C 0.6442911979615338 0.0 0.0
C -0.6442911979615886 0.0 0.0
2
step 155
C 0.6433394913006159 0.0 0.0
C -0.6433394913006709 0.0 0.0
2
step 156
C 0.6508793090411817 0.0 0.0
C -0.650879309041237 0.0 0.0
2
step 157
C 0.6656541545519886 0.0 0.0
C -0.6656541545520441 0.0 0.0
2
step 158
C 0.685479848034359 0.0 0.0
C -0.6854798480344148 0.0 0.0
2
step 159
C 0.707933941555511 0.0 0.0
C -0.707933941555567 0.0 0.0
2
step 160
C 0.7308623065627855 0.0 0.0
C -0.7308623065628417 0.0 0.0
2
step 161
C 0.7525913932432837 0.0 0.0
C -0.7525913932433401 0.0 0.0
2
step 162
C 0.7719307114262729 0.0 0.0
C -0.7719307114263295 0.0 0.0
2
step 163
C 0.7880832397959081 0.0 0.0
C -0.788083239795965 0.0 0.0
2
step 164
C 0.8005398194721187 0.0 0.0
C -0.8005398194721758 0.0 0.0
2
step 165
C 0.8089904334488272 0.0 0.0
C -0.8089904334488844 0.0 0.0
2
step 166
C 0.8132607950442274 0.0 0.0
C -0.813260795044285 0.0 0.0
2
step 167
C 0.813272971842458 0.0 0.0
C -0.8132729718425157 0.0 0.0
2
step 168
C 0.8090267509265012 0.0 0.0
C -0.8090267509265592 0.0 0.0
2
step 169
C 0.8005995870001325 0.0 0.0
C -0.8005995870001906 0.0 0.0
2
step 170
C 0.788165126877987 0.0 0.0
C -0.7881651268780454 0.0 0.0
2
step 171
C 0.7720324580970725 0.0 0.0
C -0.7720324580971312 0.0 0.0
2
step 172
C 0.7527093753732924 0.0 0.0
C -0.7527093753733513 0.0 0.0
2
step 173
C 0.7309909660043362 0.0 0.0
C -0.7309909660043953 0.0 0.0
2
step 174
C 0.7080651808724112 0.0 0.0
C -0.7080651808724705 0.0 0.0
2
step 175
C 0.6856026839551072 0.0 0.0
C -0.6856026839551667 0.0 0.0
2
step 176
C 0.6657552062328199 0.0 0.0
C -0.6657552062328796 0.0 0.0
2
step 177
C 0.6509448203804483 0.0 0.0
C -0.6509448203805083 0.0 0.0
2
step 178
C 0.6433589842267028 0.0 0.0
C -0.643358984226763 0.0 0.0
2
step 179
C 0.6442612917229653 0.0 0.0
C -0.6442612917230257 0.0 0.0
2
step 180
C 0.6534960173278975 0.0 0.0
C -0.6534960173279581 0.0 0.0
2
step 181
C 0.6695529508798715 0.0 0.0
C -0.6695529508799324 0.0 0.0
2
step 182
C 0.6901409791718051 0.0 0.0
C -0.6901409791718661 0.0 0.0
2
step 183
C 0.7128626648335903 0.0 0.0
C -0.7128626648336516 0.0 0.0
2
step 184
C 0.7356578820257529 0.0 0.0
C -0.7356578820258144 0.0 0.0
2
step 185
C 0.7569609133968668 0.0 0.0
C -0.7569609133969285 0.0 0.0
2
step 186
C 0.7756743123438651 0.0 0.0
C -0.775674312343927 0.0 0.0
2
step 187
C 0.7910712044791259 0.0 0.0
C -0.7910712044791881 0.0 0.0
2
step 188
C 0.8026916486330258 0.0 0.0
C -0.8026916486330882 0.0 0.0
2
step 189
C 0.8102591224582189 0.0 0.0
C -0.8102591224582815 0.0 0.0
2
step 190
C 0.8136225040986373 0.0 0.0
C -0.8136225040987002 0.0 0.0
2
step 191
C 0.8127213984664052 0.0 0.0
C -0.8127213984664683 0.0 0.0
2
step 192
C 0.8075715920418961 0.0 0.0
C -0.8075715920419594 0.0 0.0
2
step 193
C 0.7982688960782042 0.0 0.0
C -0.7982688960782677 0.0 0.0
2
step 194
C 0.7850118596034464 0.0 0.0
C -0.7850118596035102 0.0 0.0
2
step 195
C 0.7681458770491911 0.0 0.0
C -0.7681458770492551 0.0 0.0
2
step 196
C 0.7482319308314068 0.0 0.0
C -0.748231930831471 0.0 0.0
2
step 197
C 0.7261400625077984 0.0 0.0
C -0.7261400625078628 0.0 0.0
2
step 198
C 0.7031555264720265 0.0 0.0
C -0.7031555264720911 0.0 0.0
2
step 199
C 0.6810571751197694 0.0 0.0
C -0.6810571751198342 0.0 0.0
2
step 200
C 0.662081715363676 0.0 0.0
C -0.662081715363741 0.0 0.0
2
step 201
C 0.6486533840143254 0.0 0.0
C -0.6486533840143907 0.0 0.0
2
step 202
C 0.6428205248571789 0.0 0.0
C -0.6428205248572444 0.0 0.0
2
step 203
C 0.6455694553427618 0.0 0.0
C -0.6455694553428275 0.0 0.0
2
step 204
C 0.6564276779237734 0.0 0.0
C -0.6564276779238394 0.0 0.0
2
step 205
C 0.6736592669515233 0.0 0.0
C -0.6736592669515895 0.0 0.0
2
step 206
C 0.6948983360344136 0.0 0.0
C -0.69489833603448 0.0 0.0
2
step 207
C 0.7177928664649995 0.0 0.0
C -0.7177928664650661 0.0 0.0
2
step 208
C 0.7403834655601363 0.0 0.0
C -0.7403834655602032 0.0 0.0
2
step 209
C 0.7612106257150358 0.0 0.0
C -0.7612106257151029 0.0 0.0
2
step 210
C 0.7792652431782137 0.0 0.0
C -0.7792652431782809 0.0 0.0
2
step 211
C 0.7938857649268843 0.0 0.0
C -0.7938857649269518 0.0 0.0
2
step 212
C 0.8046576338987306 0.0 0.0
C -0.8046576338987983 0.0 0.0
2
step 213
C 0.811335179079694 0.0 0.0
C -0.8113351790797619 0.0 0.0
2
step 214
C 0.8137888700817499 0.0 0.0
C -0.8137888700818181 0.0 0.0
2
step 215
C 0.8119751904160147 0.0 0.0
C -0.8119751904160831 0.0 0.0
2
step 216
C 0.8059260999453307 0.0 0.0
C -0.8059260999453993 0.0 0.0
2
step 217
C 0.7957567957329924 0.0 0.0
C -0.7957567957330612 0.0 0.0
2
step 218
C 0.7816927332527234 0.0 0.0
C -0.7816927332527924 0.0 0.0
2
step 219
C 0.7641187539872416 0.0 0.0
C -0.7641187539873109 0.0 0.0
2
step 220
C 0.7436533396050368 0.0 0.0
C -0.7436533396051063 0.0 0.0
2
step 221
C 0.7212464784590422 0.0 0.0
C -0.7212464784591119 0.0 0.0
2
step 222
C 0.6982846286530311 0.0 0.0
C -0.698284628653101 0.0 0.0
2
step 223
C 0.676653677844358 0.0 0.0
C -0.6766536778444282 0.0 0.0
2
step 224
C 0.6586632550320265 0.0 0.0
C -0.6586632550320969 0.0 0.0
2
step 225
C 0.646713403831747 0.0 0.0
C -0.6467134038318176 0.0 0.0
2
step 226
C 0.6426802670952146 0.0 0.0
C -0.6426802670952855 0.0 0.0
2
step 227
C 0.6472534011139989 0.0 0.0
C -0.6472534011140699 0.0 0.0
2
step 228
C 0.6596531595157874 0.0 0.0
C -0.6596531595158587 0.0 0.0
2
step 229
C 0.6779486989294516 0.0 0.0
C -0.6779486989295231 0.0 0.0
2
step 230
C 0.6997298536478618 0.0 0.0
C -0.6997298536479335 0.0 0.0
2
step 231
C 0.7227072739882759 0.0 0.0
C -0.7227072739883479 0.0 0.0
2
step 232
C 0.7450267226377925 0.0 0.0
C -0.7450267226378646 0.0 0.0
2
step 233
C 0.7653322504935239 0.0 0.0
C -0.7653322504935963 0.0 0.0
2
step 234
C 0.7826981983365783 0.0 0.0
C -0.7826981983366509 0.0 0.0
2
step 235
C 0.7965236708977732 0.0 0.0
C -0.796523670897846 0.0 0.0
2
step 236
C 0.8064359169041572 0.0 0.0
C -0.8064359169042302 0.0 0.0
2
step 237
C 0.8122177162159376 0.0 0.0
C -0.8122177162160109 0.0 0.0
2
step 238
C 0.8137597636439187 0.0 0.0
C -0.8137597636439922 0.0 0.0
2
step 239
C 0.8110349441684758 0.0 0.0
C -0.8110349441685495 0.0 0.0
2
step 240
C 0.8040917424027332 0.0 0.0
C -0.8040917424028071 0.0 0.0
2
step 241
C 0.7930659662333044 0.0 0.0
C -0.7930659662333785 0.0 0.0
2
step 242
C 0.7782122118505694 0.0 0.0
C -0.7782122118506438 0.0 0.0
2
step 243
C 0.7599581651816059 0.0 0.0
C -0.7599581651816805 0.0 0.0
2
step 244
C 0.7389843351410299 0.0 0.0
C -0.7389843351411047 0.0 0.0
2
step 245
C 0.7163256269805311 0.0 0.0
C -0.7163256269806062 0.0 0.0
2
step 246
C 0.6934729405631372 0.0 0.0
C -0.6934729405632125 0.0 0.0
2
step 247
C 0.6724162265170116 0.0 0.0
C -0.6724162265170871 0.0 0.0
2
step 248
C 0.6555229746787591 0.0 0.0
C -0.6555229746788348 0.0 0.0
2
step 249
C 0.6451400819166957 0.0 0.0
C -0.6451400819167716 0.0 0.0
2
step 250
C 0.6429393738214536 0.0 0.0
C -0.6429393738215298 0.0 0.0
2
step 251
C 0.6492997396069488 0.0 0.0
C -0.6492997396070251 0.0 0.0
2
step 252
C 0.6631500231786348 0.0 0.0
C -0.6631500231787114 0.0 0.0
2
step 253
C 0.6823969785616377 0.0 0.0
C -0.6823969785617146 0.0 0.0
2
step 254
C 0.7046143849820139 0.0 0.0
C -0.704614384982091 0.0 0.0
2
step 255
C 0.727589711200645 0.0 0.0
C -0.7275897112007222 0.0 0.0
2
step 256
C 0.7495762757810541 0.0 0.0
C -0.7495762757811316 0.0 0.0
2
step 257
C 0.7693182324808322 0.0 0.0
C -0.7693182324809099 0.0 0.0
2
step 258
C 0.7859683807001471 0.0 0.0
C -0.785968380700225 0.0 0.0
2
step 259
C 0.7989820168436387 0.0 0.0
C -0.7989820168437168 0.0 0.0
2
step 260
C 0.8080248747987078 0.0 0.0
C -0.8080248747987862 0.0 0.0
2
step 261
C 0.8129060203467086 0.0 0.0
C -0.8129060203467872 0.0 0.0
2
step 262
C 0.8135352074197596 0.0 0.0
C -0.8135352074198384 0.0 0.0
2
step 263
C 0.8099014240917084 0.0 0.0
C -0.8099014240917874 0.0 0.0
2
step 264
C 0.80207021059156 0.0 0.0
C -0.8020702105916393 0.0 0.0
2
step 265
C 0.7901994128097803 0.0 0.0
C -0.7901994128098598 0.0 0.0
2
step 266
C 0.774575239706182 0.0 0.0
C -0.7745752397062617 0.0 0.0
2
step 267
C 0.7556718764192248 0.0 0.0
C -0.7556718764193048 0.0 0.0
2
step 268
C 0.7342365751677131 0.0 0.0
C -0.7342365751677933 0.0 0.0
2
step 269
C 0.7113940100421636 0.0 0.0
C -0.711394010042244 0.0 0.0
2
step 270
C 0.68874189217983 0.0 0.0
C -0.6887418921799106 0.0 0.0
2
step 271
C 0.6683691552021261 0.0 0.0
C -0.668369155202207 0.0 0.0
2
step 272
C 0.6526829604787222 0.0 0.0
C -0.6526829604788033 0.0 0.0
2
step 273
C 0.6439459976858969 0.0 0.0
C -0.6439459976859782 0.0 0.0
2
step 274
C 0.6435956981907559 0.0 0.0
C -0.6435956981908374 0.0 0.0
2
step 275
C 0.6516925438911482 0.0 0.0
C -0.6516925438912299 0.0 0.0
2
step 276
C 0.6668948686878566 0.0 0.0
C -0.6668948686879386 0.0 0.0
2
step 277
C 0.6869802017470718 0.0 0.0
C -0.6869802017471539 0.0 0.0
2
step 278
C 0.7095317807397827 0.0 0.0
C -0.7095317807398651 0.0 0.0
2
step 279
C 0.7324250856256291 0.0 0.0
C -0.7324250856257117 0.0 0.0
2
step 280
C 0.7540216573477931 0.0 0.0
C -0.754021657347876 0.0 0.0
2
step 281
C 0.7731616912259827 0.0 0.0
C -0.7731616912260657 0.0 0.0
2
step 282
C 0.789071461764618 0.0 0.0
C -0.7890714617647012 0.0 0.0
2
step 283
C 0.8012582140866614 0.0 0.0
C -0.8012582140867449 0.0 0.0
2
step 284
C 0.8094231032100995 0.0 0.0
C -0.8094231032101832 0.0 0.0
2
step 285
C 0.8133995435845365 0.0 0.0
C -0.8133995435846204 0.0 0.0
2
step 286
C 0.8131153761581985 0.0 0.0
C -0.8131153761582827 0.0 0.0
2
step 287
C 0.8085755706859158 0.0 0.0
C -0.8085755706860002 0.0 0.0
2
step 288
C 0.799863436521383 0.0 0.0
C -0.7998634365214676 0.0 0.0
2
step 289
C 0.7871604940087211 0.0 0.0
C -0.7871604940088059 0.0 0.0
2
step 290
C 0.7707872818185341 0.0 0.0
C -0.7707872818186191 0.0 0.0
2
step 291
C 0.7512683928201895 0.0 0.0
C -0.7512683928202748 0.0 0.0
2
step 292
C 0.7294226877444073 0.0 0.0
C -0.7294226877444928 0.0 0.0
2
step 293
C 0.7064692269071864 0.0 0.0
C -0.7064692269072721 0.0 0.0
2
step 294
C 0.6841138022728075 0.0 0.0
C -0.6841138022728934 0.0 0.0
2
step 295
C 0.6645368590454783 0.0 0.0
C -0.6645368590455645 0.0 0.0
2
step 296
C 0.6501638864716732 0.0 0.0
C -0.6501638864717596 0.0 0.0
2
step 297
C 0.6431408507065034 0.0 0.0
C -0.64314085070659 0.0 0.0
2
step 298
C 0.6446438305491685 0.0 0.0
C -0.6446438305492553 0.0 0.0
2
step 299
C 0.6544136584764348 0.0 0.0
C -0.6544136584765219 0.0 0.0
2
step 300
C 0.6708636662755569 0.0 0.0
C -0.6708636662756442 0.0 0.0
2
step 301
C 0.6916750230954147 0.0 0.0
C -0.6916750230955022 0.0 0.0
2
step 302
C 0.7144629437496616 0.0 0.0
C -0.7144629437497493 0.0 0.0
2
step 303
C 0.7371993646422708 0.0 0.0
C -0.7371993646423587 0.0 0.0
2
step 304
C 0.7583532601271216 0.0 0.0
C -0.7583532601272097 0.0 0.0
2
step 305
C 0.7768563732405002 0.0 0.0
C -0.7768563732405885 0.0 0.0
2
step 306
C 0.7920035446732553 0.0 0.0
C -0.7920035446733439 0.0 0.0
2
step 307
C 0.8033499658067369 0.0 0.0
C -0.8033499658068257 0.0 0.0
2
step 308
C 0.8106294016669479 0.0 0.0
C -0.8106294016670369 0.0 0.0
2
step 309
C 0.8136978979169239 0.0 0.0
C -0.8136978979170132 0.0 0.0
2
step 310
C 0.8125005989968638 0.0 0.0
C -0.8125005989969533 0.0 0.0
2
step 311
C 0.8070585111545501 0.0 0.0
C -0.8070585111546398 0.0 0.0
2
step 312
C 0.7974736131425906 0.0 0.0
C -0.7974736131426805 0.0 0.0
2
step 313
C 0.7839529530577185 0.0 0.0
C -0.7839529530578087 0.0 0.0
2
step 314
C 0.7668543672184793 0.0 0.0
C -0.7668543672185697 0.0 0.0
2
step 315
C 0.7467570099776671 0.0 0.0
C -0.7467570099777577 0.0 0.0
2
step 316
C 0.7245563135124231 0.0 0.0
C -0.7245563135125139 0.0 0.0
2
step 317
C 0.7015699680378452 0.0 0.0
C -0.7015699680379363 0.0 0.0
2
step 318
C 0.6796117616531775 0.0 0.0
C -0.6796117616532688 0.0 0.0
2
step 319
C 0.6609435237092113 0.0 0.0
C -0.6609435237093028 0.0 0.0
2
step 320
C 0.6479846639104381 0.0 0.0
C -0.6479846639105298 0.0 0.0
2
step 321
C 0.6427312563921931 0.0 0.0
C -0.642731256392285 0.0 0.0
2
step 322
C 0.6460752155398565 0.0 0.0
C -0.6460752155399486 0.0 0.0
2
step 323
C 0.6574430342040863 0.0 0.0
C -0.6574430342041787 0.0 0.0
2
step 324
C 0.6750320663688721 0.0 0.0
C -0.6750320663689647 0.0 0.0
2
step 325
C 0.6964588166830051 0.0 0.0
C -0.696458816683098 0.0 0.0
2
step 326
C 0.7193898607657983 0.0 0.0
C -0.7193898607658913 0.0 0.0
2
step 327
C 0.7418995421973759 0.0 0.0
C -0.7418995421974691 0.0 0.0
2
step 328
C 0.7625622862637724 0.0 0.0
C -0.7625622862638659 0.0 0.0
2
step 329
C 0.780396605518027 0.0 0.0
C -0.7803966055181207 0.0 0.0
2
step 330
C 0.79476112923495 0.0 0.0
C -0.7947611292350439 0.0 0.0
2
step 331
C 0.8052552437544808 0.0 0.0
C -0.8052552437545749 0.0 0.0
2
step 332
C 0.8116427603475457 0.0 0.0
C -0.81164276034764 0.0 0.0
2
step 333
C 0.8138008505132214 0.0 0.0
C -0.813800850513316 0.0 0.0
2
step 334
C 0.8116913627439892 0.0 0.0
C -0.811691362744084 0.0 0.0
2
step 335
C 0.8053515711499907 0.0 0.0
C -0.8053515711500857 0.0 0.0
2
step 336
C 0.7949032159949346 0.0 0.0
C -0.7949032159950299 0.0 0.0
2
step 337
C 0.7805809511269746 0.0 0.0
C -0.78058095112707 0.0 0.0
2
step 338
C 0.7627831339243022 0.0 0.0
C -0.7627831339243979 0.0 0.0
2
step 339
C 0.7421478645412007 0.0 0.0
C -0.7421478645412967 0.0 0.0
2
step 340
C 0.7196521411743261 0.0 0.0
C -0.7196521411744222 0.0 0.0
2
step 341
C 0.6967159903507225 0.0 0.0
C -0.6967159903508189 0.0 0.0
2
step 342
C 0.6752594843703468 0.0 0.0
C -0.6752594843704434 0.0 0.0
2
step 343
C 0.6576128251911105 0.0 0.0
C -0.6576128251912073 0.0 0.0
2
step 344
C 0.6461620996094716 0.0 0.0
C -0.6461620996095686 0.0 0.0
2
step 345
C 0.6427206035923713 0.0 0.0
C -0.6427206035924685 0.0 0.0
2
step 346
C 0.6478783341010811 0.0 0.0
C -0.6478783341011786 0.0 0.0
2
step 347
C 0.6607590770651406 0.0 0.0
C -0.6607590770652383 0.0 0.0
2
step 348
C 0.6793756820514313 0.0 0.0
C -0.6793756820515292 0.0 0.0
2
step 349
C 0.7013098049787823 0.0 0.0
C -0.7013098049788804 0.0 0.0
2
step 350
C 0.7242956156156097 0.0 0.0
C -0.7242956156157081 0.0 0.0
2
step 351
C 0.7465135992990823 0.0 0.0
C -0.7465135992991809 0.0 0.0
2
step 352
C 0.7666406966683734 0.0 0.0
C -0.7666406966684722 0.0 0.0
2
step 353
C 0.7837772520078656 0.0 0.0
C -0.7837772520079647 0.0 0.0
2
step 354
C 0.7973410802784882 0.0 0.0
C -0.7973410802785874 0.0 0.0
2
step 355
C 0.8069722679981896 0.0 0.0
C -0.806972267998289 0.0 0.0
2
step 356
C 0.8124623494624518 0.0 0.0
C -0.8124623494625515 0.0 0.0
2
step 357
C 0.8137083214187933 0.0 0.0
C -0.8137083214188933 0.0 0.0
2
step 358
C 0.8106883175397473 0.0 0.0
C -0.8106883175398475 0.0 0.0
2
step 359
C 0.8034562891165896 0.0 0.0
C -0.80345628911669 0.0 0.0
2
step 360
C 0.7921550277928513 0.0 0.0
C -0.7921550277929519 0.0 0.0
2
step 361
C 0.7770491037660515 0.0 0.0
C -0.7770491037661523 0.0 0.0
2
step 362
C 0.7585808765139235 0.0 0.0
C -0.7585808765140245 0.0 0.0
2
step 363
C 0.7374519845834974 0.0 0.0
C -0.7374519845835986 0.0 0.0
2
step 364
C 0.7147259354004576 0.0 0.0
C -0.7147259354005591 0.0 0.0
2
step 365
C 0.6919280719174923 0.0 0.0
C -0.691928071917594 0.0 0.0
2
step 366
C 0.6710811261563472 0.0 0.0
C -0.6710811261564491 0.0 0.0
2
step 367
C 0.6545676056744922 0.0 0.0
C -0.6545676056745944 0.0 0.0
2
step 368
C 0.6447105757397442 0.0 0.0
C -0.6447105757398466 0.0 0.0
2
step 369
C 0.6431089806525664 0.0 0.0
C -0.643108980652669 0.0 0.0
2
step 370
C 0.6500389417616818 0.0 0.0
C -0.6500389417617846 0.0 0.0
2
step 371
C 0.6643389988215095 0.0 0.0
C -0.6643389988216125 0.0 0.0
2
step 372
C 0.6838703397876204 0.0 0.0
C -0.6838703397877236 0.0 0.0
2
step 373
C 0.7062071571691371 0.0 0.0
C -0.7062071571692405 0.0 0.0
2
step 374
C 0.7291643856299178 0.0 0.0
C -0.7291643856300215 0.0 0.0
2
step 375
C 0.7510304589162594 0.0 0.0
C -0.7510304589163633 0.0 0.0
2
step 376
C 0.7705811603376848 0.0 0.0
C -0.7705811603377889 0.0 0.0
2
step 377
C 0.7869936718198589 0.0 0.0
C -0.7869936718199633 0.0 0.0
2
step 378
C 0.7997405979446606 0.0 0.0
C -0.7997405979447652 0.0 0.0
2
step 379
C 0.8084994882906709 0.0 0.0
C -0.8084994882907757 0.0 0.0
2
step 380
C 0.8130875099725605 0.0 0.0
C -0.8130875099726655 0.0 0.0
2
step 381
C 0.8134203824860593 0.0 0.0
C -0.8134203824861646 0.0 0.0
2
step 382
C 0.8094922838673568 0.0 0.0
C -0.8094922838674623 0.0 0.0
2
step 383
C 0.8013744323250429 0.0 0.0
C -0.8013744323251486 0.0 0.0
2
step 384
C 0.7892321651515577 0.0 0.0
C -0.7892321651516636 0.0 0.0
2
step 385
C 0.7733625196543185 0.0 0.0
C -0.7733625196544246 0.0 0.0
2
step 386
C 0.7542555951169095 0.0 0.0
C -0.7542555951170159 0.0 0.0
2
step 387
C 0.7326813377564205 0.0 0.0
C -0.7326813377565271 0.0 0.0
2
step 388
C 0.709794553887964 0.0 0.0
C -0.7097945538880708 0.0 0.0
2
step 389
C 0.6872279420539182 0.0 0.0
C -0.6872279420540253 0.0 0.0
2
step 390
C 0.6671010686213449 0.0 0.0
C -0.6671010686214521 0.0 0.0
2
step 391
C 0.6518295317009843 0.0 0.0
C -0.6518295317010918 0.0 0.0
2
step 392
C 0.6436417631936308 0.0 0.0
C -0.6436417631937384 0.0 0.0
2
step 393
C 0.6438931735101701 0.0 0.0
C -0.643893173510278 0.0 0.0
2
step 394
C 0.6525403531768572 0.0 0.0
C -0.6525403531769653 0.0 0.0
2
step 395
C 0.6681591595634623 0.0 0.0
C -0.6681591595635706 0.0 0.0
2
step 396
C 0.6884922970791708 0.0 0.0
C -0.6884922970792794 0.0 0.0
2
step 397
C 0.7111310605130089 0.0 0.0
C -0.7111310605131177 0.0 0.0
2
step 398
C 0.7339814253184732 0.0 0.0
C -0.7339814253185822 0.0 0.0
2
step 399
C 0.7554399380818962 0.0 0.0
C -0.7554399380820055 0.0 0.0
2
step 400
C 0.774377005405465 0.0 0.0
C -0.7743770054055744 0.0 0.0
2
step 401
C 0.7900416804296433 0.0 0.0
C -0.790041680429753 0.0 0.0
2
step 402
C 0.80195719087728 0.0 0.0
C -0.8019571908773899 0.0 0.0
2
step 403
C 0.8098355679226883 0.0 0.0
C -0.8098355679227984 0.0 0.0
2
step 404
C 0.8135177464186517 0.0 0.0
C -0.8135177464187621 0.0 0.0
2
step 405
C 0.8129372582348052 0.0 0.0
C -0.8129372582349158 0.0 0.0
2
step 406
C 0.8081042615670566 0.0 0.0
C -0.8081042615671674 0.0 0.0
2
step 407
C 0.7991080151439987 0.0 0.0
C -0.7991080151441097 0.0 0.0
2
step 408
C 0.786138107864069 0.0 0.0
C -0.7861381078641803 0.0 0.0
2
step 409